# vtk DataFile Version 2.0
sphere
ASCII
DATASET UNSTRUCTURED_GRID
POINTS 3477 float
-3.7972 -3.79829 -19.2477 0.000315839 -3.82198 -19.6275 3.79802 -3.7969 -19.2478 -3.82246 -0.000784959
-19.6275 -0.000811593 3.92644e-05 -20 3.82155 0.000830365 -19.6276 -3.79858 3.79691 -19.2477
-0.00126166 3.82202 -19.6275 3.79663 3.79833 -19.2478 0.00152798 -12.0707 -15.9179 -8.05582
-8.05785 -16.4197 -4.07189 -8.17876 -16.3324 0.00180478 -8.2563 -16.482 4.07466 -8.17768
-16.3323 8.05785 -8.05582 -16.4197 -8.17771 -4.07467 -16.3323 -4.11682 -4.11833 -16.3813
0.000728151 -4.11956 -16.3206 4.11816 -4.11666 -16.3814 8.17869 -4.07182 -16.3324 -12.0707
-0.00153036 -15.9179 -8.25635 -0.00186045 -16.482 -4.11982 -0.0009961 -16.3205 -0.000442027 -1.56055e-05
-16.2568 4.11925 0.00100283 -16.3206 8.25621 0.00189726 -16.482 12.0707 0.00153053 -15.9179
-8.17879 4.07185 -16.3324 -4.11849 4.11664 -16.3813 -0.00126171 4.11949 -16.3205 4.11648
4.1183 -16.3814 8.17765 4.0747 -16.3323 -8.05785 8.05582 -16.4197 -4.0747 8.17765
-16.3323 -0.0019053 8.25626 -16.482 4.07179 8.17875 -16.3324 8.05581 8.05785 -16.4197
-0.0015317 12.0707 -15.9179 0.00235217 -15.917 -12.0718 -8.65496 -12.7426 -12.7441 -4.12193
-12.4199 -12.4227 0.00149689 -12.3924 -12.3951 4.12413 -12.4194 -12.4226 8.65619 -12.7416
-12.7441 -12.7416 -8.65619 -12.7441 -8.2513 -8.25421 -12.3365 -4.11559 -8.26072 -12.3574
0.00115821 -8.28425 -12.3931 4.11752 -8.25989 -12.3574 8.25276 -8.25272 -12.3365 12.7426
-8.65496 -12.7441 -12.4194 -4.12409 -12.4226 -8.25965 -4.11688 -12.3574 -4.12956 -4.13058
-12.3433 0.000443724 -4.1382 -12.3311 4.13028 -4.12943 -12.3432 8.25993 -4.11478 -12.357
12.4201 -4.12173 -12.4224 -15.917 -0.00235215 -12.0718 -12.3924 -0.00148417 -12.3951 -8.28427
-0.00112905 -12.3931 -4.13834 -0.000676091 -12.3311 -0.000413652 -0.000194516 -12.3046 4.13748 0.000606389
-12.331 8.28373 0.0017752 -12.3924 12.3925 0.00144662 -12.3946 15.917 0.00235215 -12.0718
-12.4199 4.12193 -12.4227 -8.26076 4.11552 -12.3574 -4.13072 4.12922 -12.3432 -0.000918802
4.13755 -12.3309 4.12899 4.13014 -12.3431 8.25989 4.11747 -12.357 12.4194 4.12413
-12.4226 -12.7426 8.65496 -12.7441 -8.25421 8.25127 -12.3365 -4.11691 8.25913 -12.3569
-0.000908196 8.28377 -12.3924 4.11447 8.26062 -12.3571 8.25186 8.25173 -12.3361 12.7416
8.65619 -12.7441 -8.65619 12.7416 -12.7441 -4.12396 12.4195 -12.4223 -0.00159948 12.3925
-12.3946 4.12184 12.42 -12.4226 8.65496 12.7426 -12.7441 -0.00235214 15.917 -12.0718
-8.05031 -16.3996 -8.05233 -4.0708 -16.3203 -8.17555 0.00311218 -16.4782 -8.25787 4.07437
-16.3195 -8.17566 8.05018 -16.3994 -8.05292 -12.7337 -12.7311 -8.64979 -8.2474 -12.3265
-8.25032 -4.11466 -12.3497 -8.25771 0.00156166 -12.3877 -8.28311 4.11664 -12.3493 -8.25789
8.24706 -12.3268 -8.25059 12.7311 -12.7337 -8.64979 -16.3994 -8.05018 -8.05292 -12.3265
-8.24666 -8.24956 -8.26703 -8.26761 -8.27265 -4.133 -8.26352 -8.26706 0.000789206 -8.27426
-8.27825 4.13413 -8.2631 -8.26714 8.2675 -8.2672 -8.27266 12.3263 -8.24705 -8.24935
16.3996 -8.05031 -8.05233 -16.3195 -4.07436 -8.17565 -12.3492 -4.11638 -8.25786 -8.2629
-4.13365 -8.26722 -4.13727 -4.13821 -8.26146 0.000143348 -4.14212 -8.25996 4.13742 -4.13768
-8.26137 8.26357 -4.1324 -8.26707 12.3504 -4.11429 -8.25876 16.3203 -4.07079 -8.1756
-16.4782 -0.00310742 -8.25787 -12.3877 -0.00147069 -8.28312 -8.27424 -0.000593882 -8.27828 -4.14219
-9.67078e-06 -8.25997 -0.00075856 -0.000578398 -8.25229 4.13941 -0.000193712 -8.25971 8.27575 0.00103637
-8.27664 12.3882 0.00095892 -8.28375 16.4782 0.00308529 -8.25792 -16.3203 4.0708 -8.17555
-12.3496 4.11464 -8.25772 -8.26357 4.13296 -8.26709 -4.13851 4.13687 -8.26137 -0.00104574
4.13916 -8.25972 4.13612 4.13487 -8.26116 8.26443 4.13392 -8.26574 12.3496 4.11665
-8.2579 16.3195 4.07437 -8.17566 -16.3996 8.05031 -8.05233 -12.3264 8.24738 -8.25032
-8.26767 8.26714 -8.27266 -4.13392 8.26322 -8.26715 -0.00137157 8.27591 -8.2767 4.13049
8.26587 -8.26605 8.26978 8.26774 -8.26992 12.3272 8.2482 -8.25147 16.3994 8.05018
-8.05292 -12.7311 12.7337 -8.64979 -8.24674 12.3267 -8.24964 -4.11643 12.35 -8.25893
-0.00247014 12.3882 -8.28375 4.11398 12.35 -8.25763 8.24733 12.3263 -8.2491 12.7337
12.7311 -8.64979 -8.05018 16.3994 -8.05292 -4.07437 16.3195 -8.1757 -0.00315444 16.4782
-8.25792 4.07077 16.3203 -8.17556 8.05031 16.3996 -8.05233 -3.80268 -19.257 -3.8039
0.00194803 -19.6269 -3.82558 3.80526 -19.2564 -3.80579 -8.17802 -16.3254 -4.07483 -4.11613
-16.3698 -4.11722 0.00183894 -16.3175 -4.12152 4.11819 -16.369 -4.11915 8.17733 -16.3248
-4.07866 -12.416 -12.415 -4.1268 -8.25791 -12.35 -4.11598 -4.12876 -12.3361 -4.12915
0.000878094 -12.3261 -4.13798 4.12964 -12.3358 -4.13019 8.2567 -12.3501 -4.1175 12.4138
-12.4171 -4.12668 -16.3248 -8.17726 -4.07868 -12.3493 -8.25503 -4.11826 -8.26283 -8.26448
-4.13271 -4.13701 -8.25782 -4.1368 0.000280515 -8.25636 -4.14039 4.13727 -8.25754 -4.13726
8.26303 -8.26441 -4.1328 12.3496 -8.25676 -4.11666 16.3254 -8.17797 -4.07485 -19.2564
-3.80526 -3.80579 -16.3689 -4.11809 -4.11917 -12.3356 -4.12877 -4.13039 -8.25726 -4.13419
-4.13777 -4.13829 -4.13845 -4.14116 2.49327e-05 -4.13931 -4.14268 4.13877 -4.138 -4.14101
8.25766 -4.13383 -4.13782 12.3361 -4.12795 -4.12972 16.3698 -4.11605 -4.11729 19.257
-3.80268 -3.8039 -19.6269 -0.00194803 -3.82558 -16.3174 -0.00180077 -4.12153 -12.326 -0.00063466
-4.13804 -8.25629 0.000333622 -4.14053 -4.13943 0.000306053 -4.14271 -0.000458129 -9.12105e-05 -4.14191
4.14034 0.000463584 -4.14099 8.25653 0.00168915 -4.14282 12.3261 0.00121674 -4.13863 16.3176
0.00190631 -4.12172 19.6269 0.00194803 -3.82558 -19.257 3.80268 -3.8039 -16.3698 4.11612
-4.11723 -12.336 4.12864 -4.1292 -8.25777 4.13691 -4.13701 -4.13865 4.13864 -4.14103
-0.000786315 4.14018 -4.141 4.13924 4.13847 -4.14009 8.25752 4.13768 -4.13909 12.3359
4.12993 -4.13061 16.369 4.11823 -4.1192 19.2564 3.80526 -3.80579 -16.3254 8.17799
-4.07483 -12.3496 8.25745 -4.11595 -8.26446 8.26315 -4.1328 -4.13484 8.25758 -4.1381
-0.000174622 8.25657 -4.1428 4.1351 8.2579 -4.1385 8.26342 8.26251 -4.13502 12.3503
8.25724 -4.11804 16.3248 8.17736 -4.07868 -12.4147 12.4161 -4.12666 -8.25612 12.3501
-4.11823 -4.12927 12.3359 -4.13073 -0.00120915 12.3261 -4.13865 4.12777 12.3359 -4.12967
8.2556 12.3488 -4.11709 12.4174 12.4136 -4.12687 -8.17731 16.3248 -4.07869 -4.11817
16.369 -4.11921 -0.00188563 16.3176 -4.12173 4.11602 16.3698 -4.11728 8.17792 16.3254
-4.07485 -3.80526 19.2564 -3.80579 -0.00194803 19.6269 -3.82558 3.80268 19.257 -3.8039
-3.82486 -19.627 0.00213734 0.0012028 -19.9999 0.0012485 3.82628 -19.6269 -0.000588375 -12.0717
-15.9171 0.00239904 -8.25846 -16.4796 0.00343922 -4.12122 -16.3181 0.002097 0.000584516 -16.2564
0.00070074 4.12189 -16.318 -0.00117798 8.2586 -16.4795 -0.00318053 12.0718 -15.917 -0.00232538
-15.917 -12.0718 -0.00232538 -12.3872 -12.3884 8.63494e-05 -8.2823 -12.3875 0.00156067 -4.13785
-12.3262 0.00133317 6.79086e-05 -12.3008 0.000556858 4.13769 -12.3259 -0.000318036 8.28195 -12.3868
-0.000412873 12.3874 -12.3879 -1.0732e-05 15.9171 -12.0717 0.00239904 -16.4795 -8.25852 -0.00320661
-12.3869 -8.28078 -0.0009311 -8.2734 -8.27487 0.000793887 -4.14173 -8.25634 0.0010261 -0.000488192
-8.24887 0.000484894 4.13981 -8.25589 -0.000493149 8.27472 -8.27311 0.000557872 12.3873 -8.28125
0.00069525 16.4796 -8.25839 0.00339671 -19.6269 -3.82628 -0.000588375 -16.318 -4.12178 -0.00117415
-12.3259 -4.13702 -0.000269973 -8.2561 -4.13857 0.000528306 -4.1393 -4.14069 0.00116882 -0.000421692
-4.13994 0.0013383 4.14049 -4.13928 0.000855646 8.25636 -4.1408 0.00130483 12.3261 -4.13728
0.00115551 16.3182 -4.12126 0.00207072 19.627 -3.82486 0.00213734 -19.9999 -0.0012028 0.0012485
-16.2563 -0.000559035 0.000698653 -12.3007 5.19483e-05 0.000549117 -8.24879 0.000422937 0.000507458 -4.13986
0.000936789 0.00134521 -0.000429593 6.46925e-05 0.000676768 4.14056 0.000101053 0.000522079 8.24911 0.000473562
0.000616993 12.3008 0.000570782 0.000621381 16.2563 0.000719005 0.000732401 19.9999 0.0012028 0.0012485
-19.627 3.82486 0.00213734 -16.3181 4.12117 0.00208207 -12.326 4.13749 0.0012198 -8.256
4.13998 -8.28235e-05 -4.13967 4.14074 0.000854431 -0.00123179 4.14039 0.000500522 4.14081 4.13949
0.000585413 8.2563 4.14187 0.000715553 12.3261 4.13824 -0.000239106 16.318 4.12198 -0.0011665
19.6269 3.82628 -0.000588375 -16.4796 8.25842 0.00345786 -12.3868 8.28186 0.00199484 -8.27328
8.27473 0.000548989 -4.14129 8.2564 0.000891552 -0.000707409 8.2491 0.000500798 4.1387 8.25635
0.000633021 8.27457 8.27345 0.000365804 12.3874 8.28243 -0.000953771 16.4795 8.25863 -0.00320384
-15.9171 12.0717 0.00239904 -12.3879 12.3874 5.75792e-06 -8.28142 12.3873 -0.00173302 -4.13783
12.326 -0.000396761 -0.00052935 12.3008 0.000585167 4.13678 12.326 0.00120622 8.28062 12.3869
0.00140432 12.3884 12.3872 4.47747e-05 15.917 12.0718 -0.00232538 -12.0718 15.917 -0.00232538
-8.25857 16.4795 -0.0032431 -4.12204 16.3181 -0.00119239 -0.000643588 16.2562 0.000727183 4.12117
16.3182 0.0020803 8.25834 16.4796 0.0034298 12.0717 15.9171 0.00239904 -3.82628 19.6269
-0.000588375 -0.0012028 19.9999 0.0012485 3.82486 19.627 0.00213734 -3.80435 -19.2564 3.80675
-0.000480998 -19.6268 3.82706 3.80352 -19.2568 3.8048 -8.17725 -16.3249 4.07884 -4.11774
-16.369 4.11976 -0.00110712 -16.3174 4.12241 4.11652 -16.3696 4.11779 8.17812 -16.3253
4.07499 -12.4135 -12.4174 4.12698 -8.25736 -12.3504 4.11897 -4.12961 -12.336 4.13146
-0.000700632 -12.326 4.13905 4.12863 -12.336 4.13018 8.25826 -12.3496 4.11731 12.416
-12.4149 4.12694 -16.3253 -8.17802 4.07498 -12.3488 -8.25574 4.11739 -8.2625 -8.26348
4.13554 -4.13797 -8.25745 4.13913 -0.000838193 -8.25627 4.14101 4.13609 -8.2573 4.13608
8.26397 -8.26199 4.13519 12.3496 -8.2549 4.11892 16.3248 -8.17715 4.07882 -19.2568
-3.80352 3.8048 -16.3696 -4.11644 4.11781 -12.3359 -4.12788 4.13046 -8.25771 -4.13515
4.139 -4.13855 -4.13926 4.14091 -0.00066181 -4.13961 4.1424 4.1394 -4.13871 4.14044
8.25758 -4.13758 4.13945 12.3359 -4.12899 4.13164 16.369 -4.11768 4.11979 19.2564
-3.80435 3.80675 -19.6268 0.000480998 3.82706 -16.3173 0.00114047 4.12242 -12.326 0.000890537
[...]
CELL_DATA 6688
FIELD attributes 2
cellID 1 6688 int
0 1 2 3 4 5 6 7 8 9 10
11 12 13 14 15 16 17 18 19 20
21 22 23 24 25 26 27 28 29 30
31 32 33 34 35 36 37 38 39 40
41 42 43 44 45 46 47 48 49 50
51 52 53 54 55 56 57 58 59 60
61 62 63 64 65 66 67 68 69 70
71 72 73 74 75 76 77 78 79 80
81 82 83 84 85 86 87 88 89 90
91 92 93 94 95 96 97 98 99 100
101 102 103 104 105 106 107 108 109 110
111 112 113 114 115 116 117 118 119 120
121 122 123 124 125 126 127 128 129 130
131 132 133 134 135 136 137 138 139 140
141 142 143 144 145 146 147 148 149 150
151 152 153 154 155 156 157 158 159 160
161 162 163 164 165 166 167 168 169 170
171 172 173 174 175 176 177 178 179 180
181 182 183 184 185 186 187 188 189 190
191 192 193 194 195 196 197 198 199 200
201 202 203 204 205 206 207 208 209 210
211 212 213 214 215 216 217 218 219 220
221 222 223 224 225 226 227 228 229 230
231 232 233 234 235 236 237 238 239 240
241 242 243 244 245 246 247 248 249 250
251 252 253 254 255 256 257 258 259 260
261 262 263 264 265 266 267 268 269 270
271 272 273 274 275 276 277 278 279 280
281 282 283 284 285 286 287 288 289 290
291 292 293 294 295 296 297 298 299 300
301 302 303 304 305 306 307 308 309 310
311 312 313 314 315 316 317 318 319 320
321 322 323 324 325 326 327 328 329 330
331 332 333 334 335 336 337 338 339 340
341 342 343 344 345 346 347 348 349 350
351 352 353 354 355 356 357 358 359 360
361 362 363 364 365 366 367 368 369 370
371 372 373 374 375 376 377 378 379 380
381 382 383 384 385 386 387 388 389 390
391 392 393 394 395 396 397 398 399 400
401 402 403 404 405 406 407 408 409 410
411 412 413 414 415 416 417 418 419 420
421 422 423 424 425 426 427 428 429 430
431 432 433 434 435 436 437 438 439 440
441 442 443 444 445 446 447 448 449 450
451 452 453 454 455 456 457 458 459 460
461 462 463 464 465 466 467 468 469 470
471 472 473 474 475 476 477 478 479 480
481 482 483 484 485 486 487 488 489 490
491 492 493 494 495 496 497 498 499 500
501 502 503 504 505 506 507 508 509 510
511 512 513 514 515 516 517 518 519 520
521 522 523 524 525 526 527 528 529 530
531 532 533 534 535 536 537 538 539 540
541 542 543 544 545 546 547 548 549 550
551 552 553 554 555 556 557 558 559 560
561 562 563 564 565 566 567 568 569 570
571 572 573 574 575 576 577 578 579 580
581 582 583 584 585 586 587 588 589 590
591 592 593 594 595 596 597 598 599 600
601 602 603 604 605 606 607 608 609 610
611 612 613 614 615 616 617 618 619 620
621 622 623 624 625 626 627 628 629 630
631 632 633 634 635 636 637 638 639 640
641 642 643 644 645 646 647 648 649 650
651 652 653 654 655 656 657 658 659 660
661 662 663 664 665 666 667 668 669 670
671 672 673 674 675 676 677 678 679 680
681 682 683 684 685 686 687 688 689 690
691 692 693 694 695 696 697 698 699 700
701 702 703 704 705 706 707 708 709 710
711 712 713 714 715 716 717 718 719 720
721 722 723 724 725 726 727 728 729 730
731 732 733 734 735 736 737 738 739 740
741 742 743 744 745 746 747 748 749 750
751 752 753 754 755 756 757 758 759 760
761 762 763 764 765 766 767 768 769 770
771 772 773 774 775 776 777 778 779 780
781 782 783 784 785 786 787 788 789 790
791 792 793 794 795 796 797 798 799 800
801 802 803 804 805 806 807 808 809 810
811 812 813 814 815 816 817 818 819 820
821 822 823 824 825 826 827 828 829 830
831 832 833 834 835 836 837 838 839 840
841 842 843 844 845 846 847 848 849 850
851 852 853 854 855 856 857 858 859 860
861 862 863 864 865 866 867 868 869 870
871 872 873 874 875 876 877 878 879 880
881 882 883 884 885 886 887 888 889 890
891 892 893 894 895 896 897 898 899 900
901 902 903 904 905 906 907 908 909 910
911 912 913 914 915 916 917 918 919 920
921 922 923 924 925 926 927 928 929 930
931 932 933 934 935 936 937 938 939 940
941 942 943 944 945 946 947 948 949 950
951 952 953 954 955 956 957 958 959 960
961 962 963 964 965 966 967 968 969 970
971 972 973 974 975 976 977 978 979 980
981 982 983 984 985 986 987 988 989 990
991 992 993 994 995 996 997 998 999 1000
1001 1002 1003 1004 1005 1006 1007 1008 1009 1010
1011 1012 1013 1014 1015 1016 1017 1018 1019 1020
1021 1022 1023 1024 1025 1026 1027 1028 1029 1030
1031 1032 1033 1034 1035 1036 1037 1038 1039 1040
1041 1042 1043 1044 1045 1046 1047 1048 1049 1050
1051 1052 1053 1054 1055 1056 1057 1058 1059 1060
1061 1062 1063 1064 1065 1066 1067 1068 1069 1070
1071 1072 1073 1074 1075 1076 1077 1078 1079 1080
1081 1082 1083 1084 1085 1086 1087 1088 1089 1090
1091 1092 1093 1094 1095 1096 1097 1098 1099 1100
1101 1102 1103 1104 1105 1106 1107 1108 1109 1110
1111 1112 1113 1114 1115 1116 1117 1118 1119 1120
1121 1122 1123 1124 1125 1126 1127 1128 1129 1130
1131 1132 1133 1134 1135 1136 1137 1138 1139 1140
1141 1142 1143 1144 1145 1146 1147 1148 1149 1150
1151 1152 1153 1154 1155 1156 1157 1158 1159 1160
1161 1162 1163 1164 1165 1166 1167 1168 1169 1170
1171 1172 1173 1174 1175 1176 1177 1178 1179 1180
1181 1182 1183 1184 1185 1186 1187 1188 1189 1190
1191 1192 1193 1194 1195 1196 1197 1198 1199 1200
1201 1202 1203 1204 1205 1206 1207 1208 1209 1210
1211 1212 1213 1214 1215 1216 1217 1218 1219 1220
1221 1222 1223 1224 1225 1226 1227 1228 1229 1230
1231 1232 1233 1234 1235 1236 1237 1238 1239 1240
1241 1242 1243 1244 1245 1246 1247 1248 1249 1250
1251 1252 1253 1254 1255 1256 1257 1258 1259 1260
1261 1262 1263 1264 1265 1266 1267 1268 1269 1270
1271 1272 1273 1274 1275 1276 1277 1278 1279 1280
1281 1282 1283 1284 1285 1286 1287 1288 1289 1290
1291 1292 1293 1294 1295 1296 1297 1298 1299 1300
1301 1302 1303 1304 1305 1306 1307 1308 1309 1310
1311 1312 1313 1314 1315 1316 1317 1318 1319 1320
1321 1322 1323 1324 1325 1326 1327 1328 1329 1330
1331 1332 1333 1334 1335 1336 1337 1338 1339 1340
1341 1342 1343 1344 1345 1346 1347 1348 1349 1350
1351 1352 1353 1354 1355 1356 1357 1358 1359 1360
1361 1362 1363 1364 1365 1366 1367 1368 1369 1370
1371 1372 1373 1374 1375 1376 1377 1378 1379 1380
1381 1382 1383 1384 1385 1386 1387 1388 1389 1390
1391 1392 1393 1394 1395 1396 1397 1398 1399 1400
1401 1402 1403 1404 1405 1406 1407 1408 1409 1410
1411 1412 1413 1414 1415 1416 1417 1418 1419 1420
1421 1422 1423 1424 1425 1426 1427 1428 1429 1430
1431 1432 1433 1434 1435 1436 1437 1438 1439 1440
1441 1442 1443 1444 1445 1446 1447 1448 1449 1450
1451 1452 1453 1454 1455 1456 1457 1458 1459 1460
1461 1462 1463 1464 1465 1466 1467 1468 1469 1470
1471 1472 1473 1474 1475 1476 1477 1478 1479 1480
1481 1482 1483 1484 1485 1486 1487 1488 1489 1490
1491 1492 1493 1494 1495 1496 1497 1498 1499 1500
1501 1502 1503 1504 1505 1506 1507 1508 1509 1510
1511 1512 1513 1514 1515 1516 1517 1518 1519 1520
1521 1522 1523 1524 1525 1526 1527 1528 1529 1530
1531 1532 1533 1534 1535 1536 1537 1538 1539 1540
1541 1542 1543 1544 1545 1546 1547 1548 1549 1550
1551 1552 1553 1554 1555 1556 1557 1558 1559 1560
1561 1562 1563 1564 1565 1566 1567 1568 1569 1570
1571 1572 1573 1574 1575 1576 1577 1578 1579 1580
1581 1582 1583 1584 1585 1586 1587 1588 1589 1590
1591 1592 1593 1594 1595 1596 1597 1598 1599 1600
1601 1602 1603 1604 1605 1606 1607 1608 1609 1610
1611 1612 1613 1614 1615 1616 1617 1618 1619 1620
1621 1622 1623 1624 1625 1626 1627 1628 1629 1630
1631 1632 1633 1634 1635 1636 1637 1638 1639 1640
1641 1642 1643 1644 1645 1646 1647 1648 1649 1650
1651 1652 1653 1654 1655 1656 1657 1658 1659 1660
1661 1662 1663 1664 1665 1666 1667 1668 1669 1670
1671 1672 1673 1674 1675 1676 1677 1678 1679 1680
1681 1682 1683 1684 1685 1686 1687 1688 1689 1690
1691 1692 1693 1694 1695 1696 1697 1698 1699 1700
1701 1702 1703 1704 1705 1706 1707 1708 1709 1710
1711 1712 1713 1714 1715 1716 1717 1718 1719 1720
1721 1722 1723 1724 1725 1726 1727 1728 1729 1730
1731 1732 1733 1734 1735 1736 1737 1738 1739 1740
1741 1742 1743 1744 1745 1746 1747 1748 1749 1750
1751 1752 1753 1754 1755 1756 1757 1758 1759 1760
1761 1762 1763 1764 1765 1766 1767 1768 1769 1770
1771 1772 1773 1774 1775 1776 1777 1778 1779 1780
1781 1782 1783 1784 1785 1786 1787 1788 1789 1790
1791 1792 1793 1794 1795 1796 1797 1798 1799 1800
1801 1802 1803 1804 1805 1806 1807 1808 1809 1810
1811 1812 1813 1814 1815 1816 1817 1818 1819 1820
1821 1822 1823 1824 1825 1826 1827 1828 1829 1830
1831 1832 1833 1834 1835 1836 1837 1838 1839 1840
1841 1842 1843 1844 1845 1846 1847 1848 1849 1850
1851 1852 1853 1854 1855 1856 1857 1858 1859 1860
1861 1862 1863 1864 1865 1866 1867 1868 1869 1870
1871 1872 1873 1874 1875 1876 1877 1878 1879 1880
1881 1882 1883 1884 1885 1886 1887 1888 1889 1890
1891 1892 1893 1894 1895 1896 1897 1898 1899 1900
1901 1902 1903 1904 1905 1906 1907 1908 1909 1910
1911 1912 1913 1914 1915 1916 1917 1918 1919 1920
1921 1922 1923 1924 1925 1926 1927 1928 1929 1930
1931 1932 1933 1934 1935 1936 1937 1938 1939 1940
1941 1942 1943 1944 1945 1946 1947 1948 1949 1950
1951 1952 1953 1954 1955 1956 1957 1958 1959 1960
1961 1962 1963 1964 1965 1966 1967 1968 1969 1970
1971 1972 1973 1974 1975 1976 1977 1978 1979 1980
1981 1982 1983 1984 1985 1986 1987 1988 1989 1990
1991 1992 1993 1994 1995 1996 1997 1998 1999 2000
2001 2002 2003 2004 2005 2006 2007 2008 2009 2010
2011 2012 2013 2014 2015 2016 2017 2018 2019 2020
2021 2022 2023 2024 2025 2026 2027 2028 2029 2030
2031 2032 2033 2034 2035 2036 2037 2038 2039 2040
2041 2042 2043 2044 2045 2046 2047 2048 2049 2050
2051 2052 2053 2054 2055 2056 2057 2058 2059 2060
2061 2062 2063 2064 2065 2066 2067 2068 2069 2070
2071 2072 2073 2074 2075 2076 2077 2078 2079 2080
2081 2082 2083 2084 2085 2086 2087 2088 2089 2090
2091 2092 2093 2094 2095 2 2 2 2 6
6 6 6 8 8 8 8 9 9 9
9 9 12 12 12 12 13 13 13 13
13 13 13 13 13 13 13 13 13 13
13 13 13 13 13 13 14 14 14 14
14 14 14 14 14 14 14 14 14 14
14 14 15 15 15 15 15 15 15 15
15 15 15 15 15 15 15 15 16 16
16 16 16 16 16 16 16 16 16 16
16 16 16 16 16 16 16 16 18 18
18 18 18 19 19 19 19 19 19 19
19 19 19 19 19 19 19 19 19 20
20 20 20 20 20 20 20 20 20 20
20 21 21 21 21 21 21 21 21 21
21 21 21 22 22 22 22 22 22 22
22 22 22 22 22 22 22 22 22 25
25 25 25 25 25 25 25 25 25 25
25 25 25 25 25 26 26 26 26 26
26 26 26 26 26 26 26 27 27 27
27 27 27 27 27 27 27 27 27 28
28 28 28 28 28 28 28 28 28 28
28 28 28 28 28 30 30 30 30 32
32 32 32 32 32 32 32 32 32 32
32 32 32 32 32 32 32 32 32 33
33 33 33 33 33 33 33 33 33 33
33 33 33 33 33 34 34 34 34 34
34 34 34 34 34 34 34 34 34 34
34 35 35 35 35 35 35 35 35 35
35 35 35 35 35 35 35 35 35 35
35 41 41 41 41 42 42 42 42 43
43 43 43 44 44 44 44 44 47 47
47 47 48 48 48 48 48 48 48 48
48 48 48 48 48 48 48 48 48 48
48 49 49 49 49 49 49 49 49 49
49 49 49 49 49 49 50 50 50 50
50 50 50 50 50 50 50 50 50 50
50 51 51 51 51 51 51 51 51 51
51 51 51 51 51 51 51 51 51 51
53 53 53 53 54 54 54 54 54 54
54 54 54 54 54 54 54 54 54 54
54 54 54 55 55 55 55 55 55 55
55 55 55 55 56 56 56 56 56 56
56 57 57 57 57 57 57 57 58 58
58 58 58 58 58 58 58 58 58 59
59 59 59 59 59 59 59 59 59 59
59 59 59 59 59 59 59 59 61 61
61 61 61 62 62 62 62 62 62 62
62 62 62 62 62 62 62 62 63 63
63 63 63 63 63 66 66 66 66 66
66 66 67 67 67 67 67 67 67 67
67 67 67 67 67 67 67 70 70 70
70 70 70 70 70 70 70 70 70 70
70 70 71 71 71 71 71 71 71 74
74 74 74 74 74 74 75 75 75 75
75 75 75 75 75 75 75 75 75 75
75 78 78 78 78 78 78 78 78 78
78 78 78 78 78 78 78 78 78 78
79 79 79 79 79 79 79 79 79 79
79 80 80 80 80 80 80 80 81 81
81 81 81 81 81 82 82 82 82 82
82 82 82 82 82 82 83 83 83 83
83 83 83 83 83 83 83 83 83 83
83 83 83 83 83 86 86 86 86 86
86 86 86 86 86 86 86 86 86 86
86 86 86 86 87 87 87 87 87 87
87 87 87 87 87 87 87 87 87 88
88 88 88 88 88 88 88 88 88 88
88 88 88 88 89 89 89 89 89 89
89 89 89 89 89 89 89 89 89 89
89 89 89 91 91 91 91 96 96 96
96 97 97 97 97 98 98 98 98 98
98 98 98 98 98 98 98 98 98 98
98 98 98 98 98 99 99 99 99 99
99 99 99 99 99 99 99 99 99 99
99 100 100 100 100 100 100 100 100 100
100 100 100 100 100 100 100 101 101 101
101 101 101 101 101 101 101 101 101 101
101 101 101 101 101 101 101 103 103 103
103 104 104 104 104 104 104 104 104 104
104 104 104 104 104 104 104 104 104 104
105 105 105 105 105 105 105 105 105 105
105 106 106 106 106 106 106 106 107 107
107 107 107 107 107 108 108 108 108 108
108 108 108 108 108 108 109 109 109 109
109 109 109 109 109 109 109 109 109 109
109 109 109 109 109 111 111 111 111 111
111 111 111 111 111 111 111 111 111 111
111 111 111 111 111 112 112 112 112 112
112 112 112 112 112 112 117 117 117 117
117 117 117 117 117 117 117 118 118 118
118 118 118 118 118 118 118 118 118 118
118 118 118 118 118 118 118 119 119 119
119 120 120 120 120 120 120 120 120 120
120 120 120 120 120 120 120 121 121 121
121 121 121 121 126 126 126 126 126 126
126 127 127 127 127 127 127 127 127 127
127 127 127 127 127 127 127 129 129 129
129 129 129 129 129 129 129 129 129 129
129 129 129 130 130 130 130 130 130 130
135 135 135 135 135 135 135 136 136 136
136 136 136 136 136 136 136 136 136 136
136 136 136 138 138 138 138 138 138 138
138 138 138 138 138 138 138 138 138 138
138 138 138 139 139 139 139 139 139 139
139 139 139 139 144 144 144 144 144 144
144 144 144 144 144 145 145 145 145 145
145 145 145 145 145 145 145 145 145 145
145 145 145 145 145 148 148 148 148 148
148 148 148 148 148 148 148 148 148 148
148 148 148 148 149 149 149 149 149 149
149 149 149 149 149 150 150 150 150 150
150 150 151 151 151 151 151 151 151 152
152 152 152 152 152 152 152 152 152 152
153 153 153 153 153 153 153 153 153 153
153 153 153 153 153 153 153 153 153 156
156 156 156 156 156 156 156 156 156 156
156 156 156 156 156 156 156 156 156 157
157 157 157 157 157 157 157 157 157 157
157 157 157 157 157 158 158 158 158 158
158 158 158 158 158 158 158 158 158 158
158 159 159 159 159 159 159 159 159 159
159 159 159 159 159 159 159 159 159 159
159 161 161 161 161 162 162 162 162 168
168 168 168 169 169 169 169 169 170 170
170 170 170 170 170 170 170 170 170 170
170 170 170 170 171 171 171 171 171 171
171 171 171 171 171 171 172 172 172 172
172 172 172 172 172 172 172 172 173 173
173 173 173 173 173 173 173 173 173 173
173 173 173 173 175 175 175 175 175 176
176 176 176 176 176 176 176 176 176 176
176 176 176 176 177 177 177 177 177 177
177 180 180 180 180 180 180 180 181 181
181 181 181 181 181 181 181 181 181 181
181 181 181 183 183 183 183 183 183 183
183 183 183 183 183 183 183 183 183 184
184 184 184 184 184 184 189 189 189 189
189 189 189 190 190 190 190 190 190 190
190 190 190 190 190 190 190 190 190 193
193 193 193 193 193 193 193 193 193 193
193 200 200 200 200 200 200 200 200 200
200 200 200 203 203 203 203 203 203 203
203 203 203 203 203 210 210 210 210 210
210 210 210 210 210 210 210 212 212 212
212 213 213 213 213 213 213 213 213 213
213 213 213 213 213 213 213 214 214 214
214 214 214 214 219 219 219 219 219 219
219 220 220 220 220 220 220 220 220 220
220 220 220 220 220 220 220 223 223 223
223 223 223 223 223 223 223 223 223 223
223 223 224 224 224 224 224 224 224 227
227 227 227 227 227 227 228 228 228 228
228 228 228 228 228 228 228 228 228 228
228 232 232 232 232 232 232 232 232 232
232 232 232 232 232 232 232 233 233 233
233 233 233 233 233 233 233 233 233 234
234 234 234 234 234 234 234 234 234 234
234 235 235 235 235 235 235 235 235 235
235 235 235 235 235 235 235 237 237 237
237 237 247 247 247 247 247 247 247 247
247 247 247 247 247 247 247 247 248 248
248 248 248 248 248 248 248 248 248 248
249 249 249 249 249 249 249 249 249 249
249 249 250 250 250 250 250 250 250 250
250 250 250 250 250 250 250 250 252 252
252 252 254 254 254 254 254 254 254 254
254 254 254 254 254 254 254 255 255 255
255 255 255 255 258 258 258 258 258 258
258 259 259 259 259 259 259 259 259 259
259 259 259 259 259 259 261 261 261 261
261 261 261 261 261 261 261 261 261 261
261 261 262 262 262 262 262 262 262 267
267 267 267 267 267 267 268 268 268 268
268 268 268 268 268 268 268 268 268 268
268 268 271 271 271 271 271 271 271 271
271 271 271 271 278 278 278 278 278 278
278 278 278 278 278 278 281 281 281 281
281 281 281 281 281 281 281 281 288 288
288 288 288 288 288 288 288 288 288 288
291 291 291 291 291 291 291 291 291 291
291 291 291 291 291 291 292 292 292 292
292 292 292 297 297 297 297 297 297 297
298 298 298 298 298 298 298 298 298 298
298 298 298 298 298 298 301 301 301 301
301 301 301 301 301 301 301 301 301 301
301 302 302 302 302 302 302 302 305 305
305 305 305 305 305 306 306 306 306 306
306 306 306 306 306 306 306 306 306 306
309 309 309 309 311 311 311 311 311 311
311 311 311 311 311 311 311 311 311 311
312 312 312 312 312 312 312 312 312 312
312 312 313 313 313 313 313 313 313 313
313 313 313 313 314 314 314 314 314 314
314 314 314 314 314 314 314 314 314 314
322 322 322 322 325 325 325 325 325 325
325 325 325 325 325 325 325 325 325 325
325 325 325 325 326 326 326 326 326 326
326 326 326 326 326 326 326 326 326 326
327 327 327 327 327 327 327 327 327 327
327 327 327 327 327 327 328 328 328 328
328 328 328 328 328 328 328 328 328 328
328 328 328 328 328 328 331 331 331 331
331 331 331 331 331 331 331 331 331 331
331 331 331 331 331 332 332 332 332 332
332 332 332 332 332 332 333 333 333 333
333 333 333 334 334 334 334 334 334 334
335 335 335 335 335 335 335 335 335 335
335 336 336 336 336 336 336 336 336 336
336 336 336 336 336 336 336 336 336 336
338 338 338 338 338 338 338 338 338 338
338 338 338 338 338 338 338 338 338 338
339 339 339 339 339 339 339 339 339 339
339 344 344 344 344 344 344 344 344 344
344 344 345 345 345 345 345 345 345 345
345 345 345 345 345 345 345 345 345 345
345 345 347 347 347 347 348 348 348 348
348 348 348 348 348 348 348 348 348 348
348 348 349 349 349 349 349 349 349 354
354 354 354 354 354 354 355 355 355 355
355 355 355 355 355 355 355 355 355 355
355 355 358 358 358 358 358 358 358 358
358 358 358 358 358 358 358 358 359 359
359 359 359 359 359 364 364 364 364 364
364 364 365 365 365 365 365 365 365 365
365 365 365 365 365 365 365 365 367 367
367 367 367 367 367 367 367 367 367 367
367 367 367 367 367 367 367 367 368 368
368 368 368 368 368 368 368 368 368 373
373 373 373 373 373 373 373 373 373 373
374 374 374 374 374 374 374 374 374 374
374 374 374 374 374 374 374 374 374 374
377 377 377 377 377 377 377 377 377 377
377 377 377 377 377 377 377 377 377 378
378 378 378 378 378 378 378 378 378 378
379 379 379 379 379 379 379 380 380 380
380 380 380 380 381 381 381 381 381 381
381 381 381 381 381 382 382 382 382 382
382 382 382 382 382 382 382 382 382 382
382 382 382 382 384 384 384 384 386 386
386 386 386 386 386 386 386 386 386 386
386 386 386 386 386 386 386 386 387 387
387 387 387 387 387 387 387 387 387 387
387 387 387 387 388 388 388 388 388 388
388 388 388 388 388 388 388 388 388 388
389 389 389 389 389 389 389 389 389 389
389 389 389 389 389 389 389 389 389 389
396 396 396 396 401 401 401 401 403 403
403 403 403 403 403 403 403 403 403 403
403 403 403 403 403 403 403 404 404 404
404 404 404 404 404 404 404 404 404 404
404 404 405 405 405 405 405 405 405 405
405 405 405 405 405 405 405 406 406 406
406 406 406 406 406 406 406 406 406 406
406 406 406 406 406 406 408 408 408 408
410 410 410 410 410 410 410 410 410 410
410 410 410 410 410 410 410 410 410 411
411 411 411 411 411 411 411 411 411 411
412 412 412 412 412 412 412 413 413 413
413 413 413 413 414 414 414 414 414 414
414 414 414 414 414 415 415 415 415 415
415 415 415 415 415 415 415 415 415 415
415 415 415 415 418 418 418 418 418 418
418 418 418 418 418 418 418 418 418 419
419 419 419 419 419 419 422 422 422 422
422 422 422 423 423 423 423 423 423 423
423 423 423 423 423 423 423 423 427 427
427 427 427 427 427 427 427 427 427 427
427 427 427 428 428 428 428 428 428 428
431 431 431 431 431 431 431 432 432 432
432 432 432 432 432 432 432 432 432 432
432 432 436 436 436 436 436 436 436 436
436 436 436 436 436 436 436 436 436 436
436 437 437 437 437 437 437 437 437 437
437 437 438 438 438 438 438 438 438 439
439 439 439 439 439 439 440 440 440 440
440 440 440 440 440 440 440 441 441 441
441 441 441 441 441 441 441 441 441 441
441 441 441 441 441 441 443 443 443 443
444 444 444 444 446 446 446 446 446 446
446 446 446 446 446 446 446 446 446 446
446 446 446 447 447 447 447 447 447 447
447 447 447 447 447 447 447 447 448 448
448 448 448 448 448 448 448 448 448 448